# vtk DataFile Version 4.2
vtk output
ASCII
DATASET POLYDATA
POINTS 1742 float
-1.76471 -0.705882 -2.12144 -1.41176 -0.352941 -2.12181 -1.41176 0 -2.13115 
-1.41176 -2.82353 -1.79673 -1.41176 -2.47059 -1.7968 -1.05882 -2.47059 -1.8264 
-1.41176 -2.11765 -1.78567 -1.05882 -2.11765 -1.80162 -1.41176 -1.76471 -1.8203 
-1.05882 -1.76471 -1.76896 -1.76471 -1.41176 -1.85885 -1.41176 -1.41176 -1.88519 
-1.76471 -1.03259 -2.11765 -1.76471 -1.05882 -2.11643 -1.41176 -1.05882 -1.93257 
-1.77777 -0.705882 -2.11765 -1.74829 -0.705882 -2.11765 -1.76471 -0.606451 -2.11765 
-1.41176 -0.370943 -2.11765 -1.41176 -0.705882 -1.99502 -0.705882 -0.705882 -1.78616 
-0.352941 -0.705882 -1.82437 0 -0.705882 -1.8371 0.352941 -0.705882 -1.82437 
0.705882 -0.705882 -1.78616 2.82353 -0.705882 -1.80942 3.17647 -0.705882 -1.82155 
-2.11765 -0.352941 -1.80033 -1.51828 -0.352941 -2.11765 -1.76471 -0.352941 -2.07913 
-1.40051 -0.352941 -2.11765 -1.05882 -0.352941 -1.87912 -0.705882 -0.352941 -1.83595 
-0.352941 -0.352941 -1.86608 0 -0.352941 -1.87881 0.352941 -0.352941 -1.86608 
0.705882 -0.352941 -1.82788 2.82353 -0.352941 -1.85046 3.17647 -0.352941 -1.91826 
3.52941 -0.352941 -1.81033 -2.11765 0 -1.83717 -1.49703 0 -2.11765 
-1.76471 0 -2.00988 -1.37215 0 -2.11765 -1.41176 0.0941728 -2.11765 
-1.05882 0 -1.92496 -0.705882 0 -1.82032 -0.352941 0 -1.84362 
0 0 -1.85635 0.352941 0 -1.84362 0.705882 0 -1.80542 
2.82353 0 -1.79878 3.17647 0 -1.86658 3.52941 0 -1.81473 
-2.11765 0.352941 -1.78836 -1.76471 0.352941 -1.91755 -1.41176 0.352941 -2.0128 
-1.05882 0.352941 -1.87912 0 0.352941 -1.76972 3.17647 0.352941 -1.77182 
-1.41176 0.705882 -1.79949 -1.76471 -4.94118 -1.47239 -1.41176 -4.94118 -1.54762 
-1.05882 -4.94118 -1.53318 -1.76471 -4.58824 -1.42917 -1.41176 -4.58824 -1.5044 
-1.05882 -4.58824 -1.47482 -1.41176 -4.23529 -1.4496 -1.05882 -4.23529 -1.46724 
-1.41176 -3.88235 -1.48521 -1.05882 -3.88235 -1.50074 -1.41176 -3.52941 -1.5272 
-1.05882 -3.52941 -1.53382 -1.41176 -2.91859 -1.76471 -1.41176 -3.17647 -1.60097 
-1.05882 -3.17647 -1.58612 -1.44913 -2.82353 -1.76471 -1.76471 -2.82353 -1.42007 
-1.13817 -2.82353 -1.76471 -1.05882 -2.75285 -1.76471 -1.05882 -2.82353 -1.73824 
3.17647 -2.82353 -1.4755 -1.49712 -2.47059 -1.76471 -1.76471 -2.47059 -1.42182 
-0.919493 -2.47059 -1.76471 3.17647 -2.47059 -1.47146 3.52941 -2.47059 -1.41482 
-1.46548 -2.11765 -1.76471 -0.900178 -2.11765 -1.76471 -0.705882 -2.11765 -1.53876 
3.17647 -2.11765 -1.47804 -1.6805 -1.76471 -1.76471 -1.76471 -1.69759 -1.76471 
-1.76471 -1.76471 -1.69809 -1.05024 -1.76471 -1.76471 -1.05882 -1.74241 -1.76471 
3.17647 -1.76471 -1.44395 -1.99436 -1.41176 -1.76471 -2.11765 -1.41176 -1.44767 
-1.15606 -1.41176 -1.76471 -1.05882 -1.41176 -1.65672 -0.705882 -1.41176 -1.45807 
-0.352941 -1.41176 -1.50037 0 -1.41176 -1.51594 0.352941 -1.41176 -1.50037 
0.705882 -1.41176 -1.45368 2.82353 -1.41176 -1.49604 3.17647 -1.41176 -1.52073 
-2.06898 -1.05882 -1.76471 -2.11765 -1.05882 -1.63956 -1.19984 -1.05882 -1.76471 
-1.05882 -1.05882 -1.59916 -0.705882 -0.777411 -1.76471 -0.705882 -1.05882 -1.66152 
-0.352941 -0.904758 -1.76471 -0.352941 -1.05882 -1.70822 0 -0.947207 -1.76471 
0 -1.05882 -1.72378 0.352941 -0.904758 -1.76471 0.352941 -1.05882 -1.70822 
0.705882 -0.777411 -1.76471 0.705882 -1.05882 -1.66152 1.05882 -1.05882 -1.5837 
1.41176 -1.05882 -1.47474 2.47059 -1.05882 -1.47771 2.82353 -0.903383 -1.76471 
2.82353 -1.05882 -1.69337 3.17647 -0.892245 -1.76471 3.17647 -1.05882 -1.66359 
3.52941 -1.05882 -1.5104 -2.0831 -0.705882 -1.76471 -2.11765 -0.549386 -1.76471 
-2.11765 -0.705882 -1.71946 -1.08621 -0.705882 -1.76471 -0.907168 -0.705882 -1.76471 
-1.05882 -0.646601 -1.76471 -1.05882 -0.705882 -1.74299 0.824826 -0.705882 -1.76471 
1.05882 -0.705882 -1.71311 1.41176 -0.705882 -1.60416 1.76471 -0.705882 -1.46407 
2.64583 -0.705882 -1.76471 2.47059 -0.705882 -1.62392 3.40897 -0.705882 -1.76471 
3.52941 -0.546237 -1.76471 3.52941 -0.705882 -1.69537 -2.16435 -0.352941 -1.76471 
-2.47059 -0.352941 -1.53851 1.05603 -0.352941 -1.76471 1.05882 -0.352941 -1.76409 
1.41176 -0.352941 -1.65514 1.76471 -0.352941 -1.51505 2.11765 -0.352941 -1.46691 
2.66205 -0.352941 -1.76471 2.47059 -0.352941 -1.61088 3.58861 -0.352941 -1.76471 
3.88235 -0.352941 -1.49813 -2.25485 0 -1.76471 -2.47059 0 -1.60536 
-0.705882 0.331053 -1.76471 -0.352941 0.321502 -1.76471 0.352941 0.321502 -1.76471 
0.931535 0 -1.76471 0.705882 0.165855 -1.76471 1.05882 0 -1.73664 
1.41176 0 -1.62769 1.76471 0 -1.55001 2.11765 0 -1.52404 
2.75937 0 -1.76471 2.47059 0 -1.58995 2.82353 0.126916 -1.76471 
3.63237 0 -1.76471 3.52941 0.186334 -1.76471 3.88235 0 -1.58096 
-2.16435 0.352941 -1.76471 -2.47059 0.352941 -1.53851 -2.11765 0.41366 -1.76471 
-1.76471 0.681895 -1.76471 -0.717358 0.352941 -1.76471 -1.05882 0.646601 -1.76471 
-0.705882 0.352941 -1.76084 -0.139068 0.352941 -1.76471 -0.352941 0.352941 -1.75527 
0.139068 0.352941 -1.76471 0 0.364685 -1.76471 0.352941 0.352941 -1.75527 
0.705882 0.352941 -1.70858 1.05882 0.352941 -1.63076 1.41176 0.352941 -1.5218 
1.76471 0.352941 -1.5108 2.11765 0.352941 -1.49414 2.47059 0.352941 -1.63457 
3.13943 0.352941 -1.76471 2.82353 0.352941 -1.69206 3.22491 0.352941 -1.76471 
3.17647 0.37116 -1.76471 3.52941 0.352941 -1.69704 3.88235 0.352941 -1.43761 
-2.11765 0.705882 -1.59867 -1.65567 0.705882 -1.76471 -1.76471 0.705882 -1.75108 
-1.24408 0.705882 -1.76471 -1.41176 0.742243 -1.76471 -1.05882 0.705882 -1.73102 
-0.705882 0.705882 -1.58186 -0.352941 0.705882 -1.57096 0 0.705882 -1.58653 
0.352941 0.705882 -1.57096 0.705882 0.705882 -1.52427 1.05882 0.705882 -1.44644 
2.47059 0.705882 -1.54717 2.82353 0.705882 -1.58751 3.17647 0.705882 -1.56696 
3.52941 0.705882 -1.48853 -1.76471 1.05882 -1.41685 -1.41176 1.05882 -1.46696 
-1.76471 -4.99619 -1.41176 -1.41176 -5.08974 -1.41176 -1.05882 -5.07204 -1.41176 
-1.84475 -4.94118 -1.41176 -1.76471 -4.94118 -1.1417 -0.941967 -4.94118 -1.41176 
-1.78769 -4.58824 -1.41176 -1.76471 -4.57531 -1.41176 -1.76471 -4.58824 -1.33422 
-0.995099 -4.58824 -1.41176 -1.05882 -4.58824 -1.15015 2.82353 -4.58824 -1.17651 
3.17647 -4.58824 -1.18588 -1.44458 -4.23529 -1.41176 -1.41176 -4.23529 -1.22009 
-1.00748 -4.23529 -1.41176 3.17647 -4.23529 -1.09559 -1.4692 -3.88235 -1.41176 
-1.41176 -3.88235 -1.0846 -0.981426 -3.88235 -1.41176 3.17647 -3.88235 -1.13638 
-1.50591 -3.52941 -1.41176 -0.958944 -3.52941 -1.41176 2.82353 -3.52941 -1.07295 
3.17647 -3.52941 -1.18472 -1.56966 -3.17647 -1.41176 -1.76471 -2.84115 -1.41176 
-0.915506 -3.17647 -1.41176 2.82353 -3.17647 -1.14811 3.17647 -2.96959 -1.41176 
3.17647 -3.17647 -1.29591 3.52941 -3.17647 -1.14001 -1.76851 -2.82353 -1.41176 
-1.76471 -2.82353 -1.36475 -0.861285 -2.82353 -1.41176 2.90231 -2.82353 -1.41176 
2.82353 -2.82353 -1.36477 3.25769 -2.82353 -1.41176 3.52941 -2.47539 -1.41176 
3.52941 -2.82353 -1.19783 -1.76691 -2.47059 -1.41176 -1.76471 -2.40057 -1.41176 
-1.76471 -2.47059 -1.35653 -0.718388 -2.47059 -1.41176 -0.705882 -2.40108 -1.41176 
2.89393 -2.47059 -1.41176 2.82353 -2.47059 -1.36977 3.53507 -2.47059 -1.41176 
3.52941 -2.38865 -1.41176 -1.72751 -2.11765 -1.41176 -1.76471 -2.04866 -1.41176 
-0.629398 -2.11765 -1.41176 -0.705882 -1.85305 -1.41176 2.9484 -2.11765 -1.41176 
2.82353 -2.11765 -1.33728 3.47472 -2.11765 -1.41176 3.52941 -2.11765 -1.38682 
-1.9656 -1.76471 -1.41176 -2.11765 -1.43779 -1.41176 -0.728621 -1.76471 -1.41176 
-0.705882 -1.67667 -1.41176 -0.705882 -1.76471 -1.30023 -0.352941 -1.52101 -1.41176 
-0.352941 -1.76471 -1.15762 0 -1.5402 -1.41176 0 -1.76471 -1.17763 
0.352941 -1.52101 -1.41176 0.352941 -1.76471 -1.15762 0.705882 -1.46344 -1.41176 
0.705882 -1.76471 -1.09759 3.0657 -1.76471 -1.41176 2.82353 -1.62919 -1.41176 
2.82353 -1.76471 -1.2735 3.32132 -1.76471 -1.41176 3.52941 -1.76471 -1.31685 
-2.12711 -1.41176 -1.41176 -2.11765 -1.41176 -1.25181 0.895965 -1.41176 -1.41176 
1.05882 -1.35079 -1.41176 1.05882 -1.41176 -1.36559 1.41176 -1.16577 -1.41176 
1.41176 -1.41176 -1.22551 2.66485 -1.41176 -1.41176 2.47059 -1.15977 -1.41176 
2.47059 -1.41176 -1.1822 3.43377 -1.41176 -1.41176 3.52941 -1.31019 -1.41176 
3.52941 -1.41176 -1.32924 -2.17766 -1.05882 -1.41176 1.57044 -1.05882 -1.41176 
1.76471 -0.848544 -1.41176 1.76471 -1.05882 -1.31263 2.39213 -1.05882 -1.41176 
2.11765 -1.05882 -1.09322 3.62293 -1.05882 -1.41176 -2.37069 -0.705882 -1.41176 
-2.47059 -0.576013 -1.41176 -2.47059 -0.705882 -1.27554 1.91813 -0.705882 -1.41176 
2.26775 -0.705882 -1.41176 2.11765 -0.501797 -1.41176 2.11765 -0.705882 -1.3243 
3.7308 -0.705882 -1.41176 3.88235 -0.489665 -1.41176 3.88235 -0.705882 -1.21101 
-2.59182 -0.352941 -1.41176 3.94258 -0.352941 -1.41176 -2.65576 0 -1.41176 
-2.82353 0 -1.08796 3.94974 0 -1.41176 -2.59182 0.352941 -1.41176 
-2.47059 0.576013 -1.41176 1.41176 0.624962 -1.41176 1.76471 0.650033 -1.41176 
2.11765 0.6565 -1.41176 3.90307 0.352941 -1.41176 3.88235 0.396691 -1.41176 
-2.37069 0.705882 -1.41176 -2.47059 0.705882 -1.27554 -2.11765 0.903255 -1.41176 
-1.05882 1.04302 -1.41176 -0.705882 0.884372 -1.41176 -0.352941 0.919727 -1.41176 
0 0.940635 -1.41176 0.352941 0.919727 -1.41176 0.705882 0.857004 -1.41176 
1.24038 0.705882 -1.41176 1.05882 0.752465 -1.41176 1.41176 0.705882 -1.36968 
1.76471 0.705882 -1.38783 2.15037 0.705882 -1.41176 2.11765 0.705882 -1.39849 
2.47059 0.921301 -1.41176 2.82353 0.985472 -1.41176 3.17647 0.906038 -1.41176 
3.63385 0.705882 -1.41176 3.52941 0.804886 -1.41176 -1.77649 1.05882 -1.41176 
-2.11765 1.05882 -1.13979 -1.76471 1.06266 -1.41176 -1.14114 1.05882 -1.41176 
-1.41176 1.09594 -1.41176 -1.05882 1.05882 -1.38414 -0.705882 1.05882 -1.24608 
-0.352941 1.05882 -1.27863 0 1.05882 -1.29864 0.352941 1.05882 -1.27863 
0.705882 1.05882 -1.21859 1.05882 1.05882 -1.11854 1.41176 1.05882 -1.11758 
1.76471 1.05882 -1.13573 2.11765 1.05882 -1.08365 2.47059 1.05882 -1.28674 
2.82353 1.05882 -1.34508 3.17647 1.05882 -1.26887 -1.41176 -5.01548 -1.05882 
-1.05882 -4.97742 -1.05882 -1.67742 -4.94118 -1.05882 -1.41176 -4.94118 -1.01974 
[...]
POINT_DATA 1742
SCALARS scalars float
LOOKUP_TABLE default
1 1 1 1 1 1 1 1 1 
1 1 1 1 1 1 1 1 1 
1 1 1 1 1 1 1 1 1 
1 1 1 1 1 1 1 1 1 
1 1 1 1 1 1 1 1 1 
1 1 1 1 1 1 1 1 1 
1 1 1 1 1 1 1 1 1 
1 1 1 1 1 1 1 1 1 
1 1 1 1 1 1 1 1 1 
1 1 1 1 1 1 1 1 1 
1 1 1 1 1 1 1 1 1 
1 1 1 1 1 1 1 1 1 
1 1 1 1 1 1 1 1 1 
1 1 1 1 1 1 1 1 1 
1 1 1 1 1 1 1 1 1 
1 1 1 1 1 1 1 1 1 
1 1 1 1 1 1 1 1 1 
1 1 1 1 1 1 1 1 1 
1 1 1 1 1 1 1 1 1 
1 1 1 1 1 1 1 1 1 
1 1 1 1 1 1 1 1 1 
1 1 1 1 1 1 1 1 1 
1 1 1 1 1 1 1 1 1 
1 1 1 1 1 1 1 1 1 
1 1 1 1 1 1 1 1 1 
1 1 1 1 1 1 1 1 1 
1 1 1 1 1 1 1 1 1 
1 1 1 1 1 1 1 1 1 
1 1 1 1 1 1 1 1 1 
1 1 1 1 1 1 1 1 1 
1 1 1 1 1 1 1 1 1 
1 1 1 1 1 1 1 1 1 
1 1 1 1 1 1 1 1 1 
1 1 1 1 1 1 1 1 1 
1 1 1 1 1 1 1 1 1 
1 1 1 1 1 1 1 1 1 
1 1 1 1 1 1 1 1 1 
1 1 1 1 1 1 1 1 1 
1 1 1 1 1 1 1 1 1 
1 1 1 1 1 1 1 1 1 
1 1 1 1 1 1 1 1 1 
1 1 1 1 1 1 1 1 1 
1 1 1 1 1 1 1 1 1 
1 1 1 1 1 1 1 1 1 
1 1 1 1 1 1 1 1 1 
1 1 1 1 1 1 1 1 1 
1 1 1 1 1 1 1 1 1 
1 1 1 1 1 1 1 1 1 
1 1 1 1 1 1 1 1 1 
1 1 1 1 1 1 1 1 1 
1 1 1 1 1 1 1 1 1 
1 1 1 1 1 1 1 1 1 
1 1 1 1 1 1 1 1 1 
1 1 1 1 1 1 1 1 1 
1 1 1 1 1 1 1 1 1 
1 1 1 1 1 1 1 1 1 
1 1 1 1 1 1 1 1 1 
1 1 1 1 1 1 1 1 1 
1 1 1 1 1 1 1 1 1 
1 1 1 1 1 1 1 1 1 
1 1 1 1 1 1 1 1 1 
1 1 1 1 1 1 1 1 1 
1 1 1 1 1 1 1 1 1 
1 1 1 1 1 1 1 1 1 
1 1 1 1 1 1 1 1 1 
1 1 1 1 1 1 1 1 1 
1 1 1 1 1 1 1 1 1 
1 1 1 1 1 1 1 1 1 
1 1 1 1 1 1 1 1 1 
1 1 1 1 1 1 1 1 1 
1 1 1 1 1 1 1 1 1 
1 1 1 1 1 1 1 1 1 
1 1 1 1 1 1 1 1 1 
1 1 1 1 1 1 1 1 1 
1 1 1 1 1 1 1 1 1 
1 1 1 1 1 1 1 1 1 
1 1 1 1 1 1 1 1 1 
1 1 1 1 1 1 1 1 1 
1 1 1 1 1 1 1 1 1 
1 1 1 1 1 1 1 1 1 
1 1 1 1 1 1 1 1 1 
1 1 1 1 1 1 1 1 1 
1 1 1 1 1 1 1 1 1 
1 1 1 1 1 1 1 1 1 
1 1 1 1 1 1 1 1 1 
1 1 1 1 1 1 1 1 1 
1 1 1 1 1 1 1 1 1 
1 1 1 1 1 1 1 1 1 
1 1 1 1 1 1 1 1 1 
1 1 1 1 1 1 1 1 1 
1 1 1 1 1 1 1 1 1 
1 1 1 1 1 1 1 1 1 
1 1 1 1 1 1 1 1 1 
1 1 1 1 1 1 1 1 1 
1 1 1 1 1 1 1 1 1 
1 1 1 1 1 1 1 1 1 
1 1 1 1 1 1 1 1 1 
1 1 1 1 1 1 1 1 1 
1 1 1 1 1 1 1 1 1 
1 1 1 1 1 1 1 1 1 
1 1 1 1 1 1 1 1 1 
1 1 1 1 1 1 1 1 1 
1 1 1 1 1 1 1 1 1 
1 1 1 1 1 1 1 1 1 
1 1 1 1 1 1 1 1 1 
1 1 1 1 1 1 1 1 1 
1 1 1 1 1 1 1 1 1 
1 1 1 1 1 1 1 1 1 
1 1 1 1 1 1 1 1 1 
1 1 1 1 1 1 1 1 1 
1 1 1 1 1 1 1 1 1 
1 1 1 1 1 1 1 1 1 
1 1 1 1 1 1 1 1 1 
1 1 1 1 1 1 1 1 1 
1 1 1 1 1 1 1 1 1 
1 1 1 1 1 1 1 1 1 
1 1 1 1 1 1 1 1 1 
1 1 1 1 1 1 1 1 1 
1 1 1 1 1 1 1 1 1 
1 1 1 1 1 1 1 1 1 
1 1 1 1 1 1 1 1 1 
1 1 1 1 1 1 1 1 1 
1 1 1 1 1 1 1 1 1 
1 1 1 1 1 1 1 1 1 
1 1 1 1 1 1 1 1 1 
1 1 1 1 1 1 1 1 1 
1 1 1 1 1 1 1 1 1 
1 1 1 1 1 1 1 1 1 
1 1 1 1 1 1 1 1 1 
1 1 1 1 1 1 1 1 1 
1 1 1 1 1 1 1 1 1 
1 1 1 1 1 1 1 1 1 
1 1 1 1 1 1 1 1 1 
1 1 1 1 1 1 1 1 1 
1 1 1 1 1 1 1 1 1 
1 1 1 1 1 1 1 1 1 
1 1 1 1 1 1 1 1 1 
1 1 1 1 1 1 1 1 1 
1 1 1 1 1 1 1 1 1 
1 1 1 1 1 1 1 1 1 
1 1 1 1 1 1 1 1 1 
1 1 1 1 1 1 1 1 1 
1 1 1 1 1 1 1 1 1 
1 1 1 1 1 1 1 1 1 
1 1 1 1 1 1 1 1 1 
1 1 1 1 1 1 1 1 1 
1 1 1 1 1 1 1 1 1 
1 1 1 1 1 1 1 1 1 
1 1 1 1 1 1 1 1 1 
1 1 1 1 1 1 1 1 1 
1 1 1 1 1 1 1 1 1 
1 1 1 1 1 1 1 1 1 
1 1 1 1 1 1 1 1 1 
1 1 1 1 1 1 1 1 1 
1 1 1 1 1 1 1 1 1 
1 1 1 1 1 1 1 1 1 
1 1 1 1 1 1 1 1 1 
1 1 1 1 1 1 1 1 1 
1 1 1 1 1 1 1 1 1 
1 1 1 1 1 1 1 1 1 
1 1 1 1 1 1 1 1 1 
1 1 1 1 1 1 1 1 1 
1 1 1 1 1 1 1 1 1 
1 1 1 1 1 1 1 1 1 
1 1 1 1 1 1 1 1 1 
1 1 1 1 1 1 1 1 1 
1 1 1 1 1 1 1 1 1 
1 1 1 1 1 1 1 1 1 
1 1 1 1 1 1 1 1 1 
1 1 1 1 1 1 1 1 1 
1 1 1 1 1 1 1 1 1 
1 1 1 1 1 1 1 1 1 
1 1 1 1 1 1 1 1 1 
1 1 1 1 1 1 1 1 1 
1 1 1 1 1 1 1 1 1 
1 1 1 1 1 1 1 1 1 
1 1 1 1 1 1 1 1 1 
1 1 1 1 1 1 1 1 1 
1 1 1 1 1 1 1 1 1 
1 1 1 1 1 1 1 1 1 
1 1 1 1 1 1 1 1 1 
1 1 1 1 1 1 1 1 1 
1 1 1 1 1 1 1 1 1 
1 1 1 1 1 1 1 1 1 
1 1 1 1 1 1 1 1 1 
1 1 1 1 1 1 1 1 1 
1 1 1 1 1 1 1 1 1 
1 1 1 1 1 1 1 1 1 
1 1 1 1 1 1 1 1 1 
1 1 1 1 1 1 1 1 1 
1 1 1 1 1 1 1 1 1 
1 1 1 1 1 1 1 1 1 
1 1 1 1 1 1 1 1 1 
1 1 1 1 1 
NORMALS Normals float
0.0418326 -0.011403 0.99906 -0.233451 0.178945 0.955761 -0.146982 -0.0852155 0.985462 
0.511868 0.206124 0.833969 0.325749 -0.0183856 0.945277 -0.140682 0.0494105 0.988821 
0.30562 0.0280415 0.951741 -0.123845 -0.0892151 0.988283 0.0710328 0.215378 0.973944 
-0.406249 -0.190612 0.89366 0.257862 0.367248 0.893665 -0.202896 0.174249 0.963572 
-0.0750882 0.268381 0.960382 -0.0805898 0.283161 0.955681 -0.437302 0.152726 0.886252 
0.0678086 -0.0215304 0.997466 0.0232734 -0.00325105 0.999724 0.123657 -0.0498703 0.991071 
-0.238061 0.184507 0.953564 -0.336389 0.201768 0.919855 0.104251 0.225391 0.968675 
0.0747419 0.216561 0.973404 -6.85925e-17 0.215733 0.976452 -0.0747419 0.216561 0.973404 
-0.151195 0.21904 0.96393 0.207656 0.251351 0.945358 -0.168234 0.318961 0.932717 
0.553268 0.122358 0.823968 -0.113277 0.120906 0.98618 0.448387 -0.15221 0.880784 
-0.237347 0.180336 0.954539 -0.296132 0.240627 0.92434 -0.000147167 0.0628396 0.998024 
0.0580064 0.0283111 0.997915 -1.13251e-16 0.0281668 0.999603 -0.0748272 0.0282793 0.996795 
-0.151442 0.0286172 0.988052 0.31929 0.0437001 0.946649 -0.174759 0.226734 0.95815 
-0.53268 0.176899 0.827622 0.461893 -0.0369582 0.886165 -0.0230694 -0.124103 0.992001 
0.429061 -0.192867 0.882445 -0.169338 -0.0798586 0.982317 -0.125242 -0.135218 0.982869 
-0.316366 -2.22825e-16 0.948637 -0.0895327 -0.0994652 0.991005 0.0440239 -0.161189 0.985941 
-2.1072e-16 -0.159537 0.987192 -0.0747858 -0.160161 0.984254 -0.151318 -0.162032 0.975115 
0.37719 -0.216413 0.900496 0.0237504 -0.218028 0.975653 -0.395407 -0.112419 0.9116 
0.41693 -0.267674 0.868631 0.311517 -0.323502 0.893479 -0.0723185 -0.276874 0.958181 
-0.282424 -0.254304 0.924968 -0 -0.346143 0.938182 0.0251065 -0.366053 0.930255 
-0.0361334 -0.58505 0.810192 0.531654 0.536623 0.655271 0.0989418 0.293657 0.950777 
-0.529544 0.240209 0.813562 0.491167 -0.743636 0.453607 0.0977419 -0.228041 0.968733 
-0.692054 -0.107032 0.713867 0.789368 -0.0138869 0.613763 -0.676226 0.0598685 0.734257 
0.802476 0.123933 0.583672 -0.679096 0.125329 0.723272 0.72679 0.15931 0.66813 
-0.644895 0.156726 0.748029 0.512821 0.263435 0.817078 0.617005 0.274557 0.737511 
-0.54203 0.282785 0.791351 0.556253 0.24638 0.793649 0.933409 0.174236 0.313671 
-0.167168 0.424673 0.88978 -0.419065 0.390886 0.819508 -0.470904 0.429991 0.770297 
-0.250071 0.245794 0.936509 0.486646 0.0695252 0.870828 0.986218 -0.0214181 0.164056 
-0.426122 0.206324 0.880824 0.0723136 0.00203112 0.99738 -0.42674 0.347866 0.834795 
0.398264 0.0419839 0.916309 -0.347877 -0.0943926 0.932776 -0.804369 -0.0428115 0.592585 
-0.0236148 -0.0372891 0.999025 0.403226 0.34617 0.847098 0.473485 0.354939 0.806121 
0.508745 0.384203 0.770432 -0.413079 -0.196178 0.889314 -0.421702 -0.19621 0.885251 
0.0405522 0.118418 0.992135 0.565392 0.422134 0.708615 0.924712 0.323681 0.200347 
-0.515275 -0.0960235 0.851628 -0.573784 -0.172555 0.800623 -0.138647 0.360192 0.922518 
0.064756 0.594109 0.801774 -1.17941e-16 0.591391 0.806385 -0.074805 0.59369 0.801209 
-0.151326 0.600498 0.785176 0.372482 0.338541 0.864088 -0.190659 0.242823 0.95115 
0.87791 0.0941341 0.469482 0.928072 0.144038 0.343416 -0.446926 0.0689958 0.891906 
-0.287285 0.134357 0.948375 0.11424 0.251683 0.961044 0.128449 0.387619 0.912827 
0.0748821 0.323278 0.943337 0.0747339 0.404832 0.911332 -0 0.344324 0.938851 
-0 0.402899 0.915244 -0.0748821 0.323278 0.943337 -0.0747339 0.404832 0.911332 
-0.151482 0.258131 0.95416 -0.151608 0.410628 0.899111 -0.232735 0.42024 0.877059 
-0.320076 0.433461 0.842415 0.574456 0.441095 0.689518 0.194573 0.342157 0.919277 
0.189801 0.404662 0.894553 -0.237732 0.333792 0.912177 -0.266157 0.366617 0.891489 
-0.628293 0.297432 0.718875 0.823497 0.0798393 0.561675 0.709403 0.12081 0.694372 
0.814213 0.131106 0.565569 -0.301699 0.336523 0.892037 -0.108325 0.301008 0.947449 
-0.287196 0.342374 0.894594 -0.274669 0.353327 0.894269 -0.177907 0.220572 0.959008 
-0.232181 0.224245 0.94647 -0.320737 0.23233 0.918232 -0.331062 0.252087 0.909313 
0.337262 0.233444 0.912008 0.504199 0.242688 0.828786 -0.478877 0.344024 0.807666 
-0.566105 0.287197 0.772685 -0.592666 0.345178 0.727736 0.539143 0.169779 0.824924 
0.665621 0.282641 0.690697 -0.230985 0.0291756 0.97252 -0.23164 0.0291811 0.972364 
-0.320515 0.030283 0.946759 -0.26083 0.122215 0.957617 0.0236252 0.238171 0.970936 
0.526237 -0.0870043 0.845875 0.597948 -0.0419 0.800439 -0.562162 0.198621 0.802822 
-0.739652 0.324376 0.589657 0.502879 -3.14631e-16 0.864357 0.657499 -3.05008e-16 0.753455 
-0.162061 -0.259306 0.952101 0.0169893 -0.332137 0.943078 -0.0746634 -0.331258 0.940581 
-0.202278 -0.164131 0.965476 -0.151724 -0.252286 0.955684 -0.231953 -0.165584 0.95853 
-0.245917 -0.175692 0.953235 -0.144014 -0.00624474 0.989556 0.0215984 0.0603629 0.997943 
0.400657 -0.18308 0.89775 0.35668 0.0402556 0.933359 0.313152 -0.245411 0.917447 
-0.517955 -0.0225497 0.855111 -0.340422 -0.292541 0.893607 -0.771482 0.0548957 0.633879 
0.437527 -0.264816 0.859327 0.662275 -0.281221 0.694482 0.408697 -0.310038 0.858396 
0.207948 -0.546617 0.811152 -0.171397 -0.269323 0.947675 -0.231065 -0.478327 0.847238 
-0.166558 -0.270986 0.948064 0.00443959 -0.347005 0.937853 0.0130158 -0.348618 0.937175 
-0.0293216 -0.34686 0.937459 -0 -0.352481 0.935819 -0.0745906 -0.347676 0.934643 
-0.151406 -0.35286 0.923345 -0.232671 -0.361503 0.902873 -0.16421 -0.340375 0.92584 
-0.0318071 -0.234159 0.971678 0.131381 -0.160613 0.978234 0.261064 -0.0569361 0.963641 
0.0427497 -0.359112 0.932315 0.16283 -0.268274 0.949482 -0.0267621 -0.368641 0.929187 
0.0218885 -0.374751 0.926867 -0.354911 -0.369614 0.858734 -0.730586 -0.367308 0.575612 
0.419769 -0.54339 0.726995 0.142425 -0.574598 0.805948 0.207472 -0.56455 0.798898 
-0.132783 -0.555811 0.820636 -0.0243303 -0.611984 0.790496 -0.227523 -0.523673 0.820975 
-0.153258 -0.563658 0.811666 0.0102546 -0.548599 0.836023 -8.45375e-17 -0.535464 0.844558 
-0.0748842 -0.537718 0.839793 -0.151636 -0.544422 0.824992 -0.182369 -0.56136 0.807227 
0.245833 -0.401005 0.882474 0.0327222 -0.417607 0.908038 -0.116448 -0.52926 0.840431 
-0.400683 -0.571832 0.715865 0.199356 -0.809587 0.55211 -0.0217274 -0.830353 0.556814 
0.607949 0.638755 0.471583 0.220946 0.846913 0.483654 -0.60961 0.682894 0.402531 
0.697868 0.561554 0.444564 0.550513 0.555658 -0.62304 -0.862615 0.272145 0.426418 
0.531092 -0.749352 0.395491 0.52169 -0.754316 0.398556 0.546187 -0.826938 0.133617 
-0.86164 -0.115406 0.494224 -0.709506 -0.0162918 -0.704511 0.257116 -0.0421443 0.965461 
-0.252501 0.0155035 0.967473 0.842157 -0.0702025 0.534644 0.912492 -0.0177273 -0.408711 
-0.808931 0.0449603 0.586181 -0.0227484 -0.105491 0.99416 0.906422 0.101481 0.410001 
0.727035 0.13781 -0.672628 -0.877709 0.104111 0.467747 0.0219533 0.196284 0.980301 
0.906612 0.13914 0.398365 -0.890041 0.138747 0.434254 0.774359 0.276462 0.569154 
-0.0735001 0.28081 0.956945 0.915645 0.209055 0.343352 0.93777 0.174387 0.300294 
-0.888514 0.224614 0.400113 0.725102 0.277561 0.630227 -0.214166 0.389549 0.895759 
-0.0415441 0.447106 0.893516 -0.715275 0.294492 0.633763 0.937987 0.171838 0.301085 
0.964267 0.182426 0.192118 -0.911647 0.342391 0.227306 0.50299 0.395302 0.768594 
0.668545 0.35985 0.650812 -0.404827 0.348083 0.845549 -0.430428 0.357106 0.82898 
-0.695309 0.272024 0.665243 0.989375 -0.0276447 0.142733 0.988715 -0.0117838 0.149343 
0.999164 -0.0230957 0.0337402 -0.884325 0.457292 0.0940904 -0.908474 0.402735 0.11171 
0.452965 -0.0158579 0.891387 0.548536 -0.0159131 0.835976 -0.43734 0.347702 0.82936 
-0.467828 0.247756 0.848383 0.971087 0.121072 0.205747 0.96091 0.181451 0.209111 
-0.963554 0.00815629 0.267389 -0.896777 -0.00175827 0.442479 0.439605 -0.0850351 0.894157 
0.650283 -0.0813292 0.755326 -0.492002 -0.0615033 0.868419 -0.555649 -0.0593761 0.829294 
0.787843 0.56401 0.247376 0.934881 0.329569 0.131839 -0.864304 -0.0109291 0.502851 
-0.699198 0.144162 0.700243 -0.773426 0.232887 0.589556 -0.0120456 0.55188 0.833836 
-0.0031955 0.681021 0.732257 -1.06483e-16 0.659981 0.751282 -2.22062e-16 0.779343 0.626597 
-0.0748391 0.652324 0.754236 -0.074823 0.782351 0.618327 -0.151382 0.628641 0.76282 
-0.151307 0.791034 0.592766 0.248324 0.185996 0.950653 0.526766 0.269298 0.806224 
0.683746 0.188547 0.70494 -0.230293 0.056939 0.971454 -0.619325 -0.0473037 0.783708 
0.947005 0.300247 0.114163 0.941468 0.329546 0.0709777 -0.194129 0.606919 0.77069 
-0.232261 0.580745 0.78025 -0.232132 0.614106 0.754314 -0.320497 0.495203 0.8075 
-0.320745 0.6364 0.701511 0.479473 0.395703 0.783279 0.588695 0.41073 0.696232 
0.595932 0.523858 0.608636 -0.548498 0.232401 0.803206 -0.629798 0.237721 0.739489 
-0.650104 0.219878 0.727337 0.952644 0.266788 0.145925 -0.359517 0.441788 0.821931 
-0.382496 0.334633 0.86123 -0.414781 0.455399 0.787762 0.547057 0.431503 0.71731 
-0.0550468 0.627254 0.776867 -0.723514 0.254732 0.641591 0.656056 0.487485 0.57615 
0.683267 0.429589 0.590424 0.681252 0.536014 0.498583 -0.210535 0.370872 0.904505 
0.332412 0.406959 0.850815 0.0118396 0.368257 0.929649 -0.0179559 0.530365 0.847579 
-0.71057 0.350425 0.610158 -0.744346 0.34192 0.57362 -0.79414 0.404465 0.453596 
0.75778 0.287776 0.585623 -0.812279 0.282901 0.510068 0.80691 -4.55908e-16 0.590675 
0.959856 -4.166e-16 0.280494 -0.881861 -0.02 0.471086 0.75778 -0.287776 0.585623 
0.670106 -0.46439 0.579051 -0.0970219 -0.450129 0.887677 0.0163367 -0.421449 0.906705 
0.186962 -0.369542 0.910211 -0.772981 -0.334502 0.539081 -0.737409 -0.387759 0.553056 
0.597437 -0.5621 0.571937 0.679701 -0.577241 0.452548 0.427228 -0.707684 0.562725 
-0.249313 -0.776283 0.578989 -0.0939034 -0.687193 0.720381 0.045598 -0.653086 0.75591 
-1.67372e-16 -0.660113 0.751167 -0.0748725 -0.651931 0.754573 -0.151713 -0.626532 0.764488 
-0.131291 -0.524677 0.841117 -0.171743 -0.588806 0.789818 -0.0762728 -0.484949 0.87121 
0.0300018 -0.456993 0.888964 0.212738 -0.401502 0.890808 0.196666 -0.407351 0.891845 
0.241469 -0.602936 0.760369 -0.00683065 -0.658426 0.752614 -0.166931 -0.637346 0.75228 
-0.529582 -0.573852 0.624689 -0.416275 -0.639123 0.646712 0.205717 -0.809867 0.54936 
0.42572 -0.82664 0.368007 0.198667 -0.812091 0.54867 -0.19729 -0.799526 0.567305 
-0.0143719 -0.855463 0.517665 -0.233408 -0.790114 0.566781 -0.0265048 -0.781719 0.623067 
0.0447768 -0.72754 0.684603 -1.13716e-16 -0.722935 0.690916 -0.0748673 -0.726226 0.683367 
-0.151721 -0.735859 0.659919 -0.0999418 -0.768203 0.632357 0.0195397 -0.687636 0.725793 
-0.0113536 -0.693578 0.720292 0.0777012 -0.758769 0.646708 0.232929 -0.72317 0.650207 
-0.00823098 -0.720866 0.693025 -0.218599 -0.740479 0.635535 0.129791 0.435449 -0.890808 
-0.432299 0.309624 -0.846907 0.371494 0.438048 -0.8186 0.0634111 0.285688 -0.956222 
-0.496534 0.229371 -0.837164 -0.498854 0.126973 -0.857335 -0.429845 0.236318 -0.871428 
0.343932 0.550003 0.761057 -0.323293 0.744872 0.58365 0.152661 -0.275458 -0.949114 
-0.207616 -0.0940453 -0.973679 0.263834 -0.117217 -0.957419 0.0676379 -0.163591 -0.984207 
-0.530843 0.0278128 -0.847014 0.76488 -0.0475862 0.642413 0.512179 -0.334772 0.790949 
-0.817557 0.121768 0.562827 -0.0489446 0.0255935 -0.998474 -0.544546 0.0426704 -0.837645 
-0.50145 0.0514695 -0.863654 0.226129 -0.257654 0.939404 -0.498596 -0.0992069 0.861139 
0.466656 0.137994 -0.873608 0.687626 0.135939 -0.713225 -0.618724 0.0624041 -0.783126 
-0.585924 0.0702266 -0.807317 0.594297 0.180218 0.783794 0.79479 0.248013 0.553894 
-0.598198 0.127364 0.791162 0.773148 0.177794 -0.608795 0.672701 0.185969 -0.716162 
-0.69886 0.206704 -0.68474 -0.570691 0.208826 -0.794168 0.792755 0.274543 0.544211 
0.899721 0.329887 -0.285792 -0.758894 0.264686 0.594997 -0.808181 0.26524 0.525824 
0.799658 0.18146 -0.57238 0.626085 0.1149 -0.771243 -0.786426 0.247556 -0.565907 
-0.462017 0.240631 -0.853602 0.867223 0.207185 0.452768 -0.820413 0.299423 0.487102 
0.798889 0.181793 -0.573347 0.490185 0.15606 -0.857534 -0.833308 0.24932 -0.493393 
-0.271934 0.207428 -0.939694 0.953288 0.179344 0.24306 -0.872135 0.20661 0.443501 
0.866675 0.0205064 -0.498451 0.56187 0.254369 -0.787145 -0.822469 0.342768 -0.453933 
-0.275213 0.173852 -0.945533 -0.874416 0.317204 -0.367122 0.966772 0.0503674 0.250629 
-0.964307 0.174595 0.199069 0.898341 0.115575 -0.423823 0.884093 0.249732 -0.394985 
0.59525 0.114085 -0.795401 -0.209495 0.511216 -0.833529 -0.883917 0.321428 -0.339668 
-0.834288 0.401813 -0.377504 -0.0563175 0.812419 0.580348 -0.0256584 0.800232 0.599141 
-0.0747761 0.821557 0.565201 -0.151246 0.80647 0.571604 0.957854 -0.0684843 0.278971 
-0.939155 0.00101405 0.343492 0.754272 0.58025 -0.307219 0.62359 0.727244 -0.286795 
-0.181952 0.796894 0.576068 -0.232243 0.776964 0.585142 -0.232443 0.810143 0.538181 
-0.320736 0.727873 0.606077 -0.320168 0.836921 0.44391 0.896291 0.2354 0.375831 
0.743174 0.536459 0.39988 -0.970937 -0.0448559 0.235096 0.925727 0.377713 0.0190177 
0.901608 0.41863 0.108868 0.809377 0.576624 0.111414 -0.409917 0.660503 0.62905 
-0.417934 0.652813 0.631797 -0.417959 0.663426 0.620625 0.495272 0.669851 0.553177 
-0.0548372 0.652073 0.75617 -0.136997 0.827392 0.54466 -0.966136 0.0582094 0.251381 
0.732456 0.54041 0.414082 0.701808 0.599411 0.38493 0.71013 0.556982 0.430681 
-0.934966 0.270155 0.229903 -0.903578 0.336909 0.264648 0.74646 0.571411 0.341009 
-0.8865 0.374878 0.271265 0.92045 0.301499 0.248737 0.965154 0.0720012 0.251581 
-0.958587 0.237982 0.156447 0.968181 -4.09997e-16 0.250252 0.965154 -0.0720012 0.251581 
-0.905769 0.277017 0.320693 0.92045 -0.301499 0.248737 -0.936272 -0.318771 0.147579 
-0.802727 -0.54537 0.241251 0.770213 -0.589594 0.243208 0.681224 -0.680131 0.270844 
-0.793879 -0.554029 0.250615 -0.561648 -0.732067 0.385526 -0.826762 -0.527172 0.196351 
0.464463 -0.828771 0.31211 0.422744 -0.83599 0.349868 0.194817 -0.906347 0.374942 
-0.0210206 -0.960498 0.277491 -0.075733 -0.920121 0.384242 0.0559809 -0.849316 0.524907 
0.0748874 -0.820967 0.566043 -0 -0.826031 0.563624 -0.0748874 -0.820967 0.566043 
-0.151676 -0.805236 0.573227 -0.0891276 -0.792336 0.603539 0.0357402 -0.725467 0.687328 
-0.0318246 -0.731067 0.681563 0.0658263 -0.770352 0.634212 0.226219 -0.855689 0.465426 
-0.025184 -0.877208 0.479449 -0.522639 -0.753373 0.399096 -0.255063 -0.855157 0.451275 
-0.569363 -0.749112 0.33861 0.274907 0.0651252 0.959263 0.124337 -0.354316 0.926823 
-0.134771 -0.627757 0.766654 0.0747075 -0.912903 0.401282 -0 -0.90989 0.414849 
-0.0747075 -0.912903 0.401282 0.0649305 -0.174254 0.982558 0.376413 0.466315 0.80054 
0.0378745 0.506797 0.861233 -0.370333 0.517827 0.771174 0.0150572 -0.131259 0.991234 
0.488303 0.0364924 0.871911 0.0374933 0.0374933 0.998593 -0.386565 0.03868 0.921451 
-0.359704 0.150931 0.920778 0.517827 -0.370333 0.771174 0.03868 -0.386565 0.921451 
-0.291325 -0.0970573 0.951688 -0.4021 -0.0878174 0.911375 0.392488 -0.497395 0.773661 
-0.0941367 -0.0494586 0.99433 0.116871 -0.175701 0.977482 0.301177 -0.39443 0.868169 
0.317253 0.403913 -0.858024 -0.28647 0.596773 -0.749531 0.659416 -0.0454789 -0.750401 
0.445057 -0.263337 -0.855908 0.258025 -0.0422933 -0.965212 -0.725828 0.110155 -0.678999 
-0.254227 0.0444435 -0.966123 0.145916 -0.169466 -0.974674 -0.346657 -0.0699364 -0.935381 
-0.0265883 -0.0669523 -0.997402 0.484821 0.167036 -0.858515 -0.481113 0.128729 -0.867156 
0.0202868 0.175134 -0.984336 0.739987 0.286182 -0.608703 0.759607 0.278041 -0.587954 
-0.675074 0.248391 -0.694677 -0.0767038 0.234645 -0.96905 -0.772396 0.272219 -0.573847 
0.834122 0.213808 -0.508456 0.693916 0.259023 -0.671854 -0.0162842 0.425947 -0.904602 
-0.778996 0.309724 -0.545194 -0.694954 0.307822 -0.649835 0.92714 0.156994 -0.340242 
0.717391 0.295607 -0.630846 -0.85245 0.225551 -0.471652 -0.681663 0.274562 -0.678197 
0.924237 0.0693347 -0.37547 0.605277 0.0310067 -0.795411 -0.955195 0.162229 -0.247557 
-0.436679 0.294342 -0.850103 0.600066 0.732326 -0.321901 0.0526447 0.874444 -0.482261 
0.0587523 0.982651 0.17591 0.0926381 0.921059 0.378243 0.0792125 0.972005 0.221205 
-3.34405e-16 0.926942 0.375204 -2.2633e-16 0.967219 0.253943 -0.0748054 0.923209 0.376948 
-0.074783 0.970352 0.229838 -0.151687 0.911554 0.382179 -0.232697 0.890552 0.390858 
-0.31975 0.857616 0.402809 0.92596 -0.0715392 -0.370782 0.614737 -0.0722328 -0.785418 